{"global": {"\\frac{1}{2} mv^2 = eV_{ion}": {"name": "Critical ionization velocity", "mathEnv": "\\frac{1}{2} mv^2 = eV_{ion}", "uniqueIDs": ["68---1", "68---11"], "qid": "Q5186734", "time": 1402, "manualSelectionTime": -1, "sourcesWithNums": {"Wikidata1": 1}, "type": "Formula"}, "m": {"name": "mass", "mathEnv": "\\frac{1}{2} mv^2 = eV_{ion}", "uniqueIDs": ["68---3", "75---15", "79---15", "79---23", "79---27", "79---33"], "qid": "Q11423", "time": 1194, "manualSelectionTime": -1, "sourcesWithNums": {"ArXiv": 1, "Wikidata": 2, "Wikipedia": 3}, "type": "Identifier"}, "v": {"name": "velocity", "mathEnv": "\\frac{1}{2} mv^2 = eV_{ion}", "uniqueIDs": ["68---5"], "qid": "Q11465", "time": 3834, "manualSelectionTime": -1, "sourcesWithNums": {"ArXiv": 3, "Wikidata": 4, "WordWindow": 4, "Wikipedia": 7}, "type": "Identifier"}, "e": {"name": "ionization potential", "mathEnv": "\\frac{1}{2} mv^2 = eV_{ion}", "uniqueIDs": ["68---7", "75---3", "79---17", "68---7"], "qid": "N/A", "time": 15012, "manualSelectionTime": 7457, "sourcesWithNums": {}, "type": "Identifier"}, "V": {"name": "gas", "mathEnv": "\\frac{1}{2} mv^2 = eV_{ion}", "uniqueIDs": ["68---9", "75---5", "79---19", "79---25", "79---29"], "qid": "Q11432", "time": 3618, "manualSelectionTime": -1, "sourcesWithNums": {"WordWindow": 7}, "type": "Identifier"}, "eV_{ion} = E_g = \\frac{k M m}{r}": {"name": "ionization potential", "mathEnv": "eV_{ion} = E_g = \\frac{k M m}{r}", "uniqueIDs": ["75---1", "75---19", "75---19"], "qid": "N/A", "time": 9287, "manualSelectionTime": 2962, "sourcesWithNums": {}, "type": "Formula"}, "E": {"name": "energy", "mathEnv": "eV_{ion} = E_g = \\frac{k M m}{r}", "uniqueIDs": ["75---7", "79---7"], "qid": "Q11379", "time": 1359, "manualSelectionTime": -1, "sourcesWithNums": {"ArXiv": 1, "Wikidata": 2, "Wikipedia": 4}, "type": "Identifier"}, "r": {"name": "distance", "mathEnv": "r_{i} = E_g = \\frac{k M m}{eV_{ion}} = 6.9\\cdot 10^{-20}M \\frac{m'}{V_{ion}} = 13.5\\cdot 10^{13} \\frac{m'}{V_{ion}} cm", "uniqueIDs": ["75---17", "79---3"], "qid": "Q126017", "time": 1941, "manualSelectionTime": -1, "sourcesWithNums": {"Wikipedia": 1, "WordWindow": 1, "ArXiv": 5, "Wikidata": 5}, "type": "Identifier"}, "M": {"name": "mass", "mathEnv": "r_{i} = E_g = \\frac{k M m}{eV_{ion}} = 6.9\\cdot 10^{-20}M \\frac{m'}{V_{ion}} = 13.5\\cdot 10^{13} \\frac{m'}{V_{ion}} cm", "uniqueIDs": ["75---13", "79---13", "79---21"], "qid": "Q11423", "time": 2304, "manualSelectionTime": -1, "sourcesWithNums": {"ArXiv": 1, "Wikipedia": 1}, "type": "Identifier"}, "r_{i} = E_g = \\frac{k M m}{eV_{ion}} = 6.9\\cdot 10^{-20}M \\frac{m'}{V_{ion}} = 13.5\\cdot 10^{13} \\frac{m'}{V_{ion}} cm": {"name": "distance", "mathEnv": "r_{i} = E_g = \\frac{k M m}{eV_{ion}} = 6.9\\cdot 10^{-20}M \\frac{m'}{V_{ion}} = 13.5\\cdot 10^{13} \\frac{m'}{V_{ion}} cm", "uniqueIDs": ["79---1", "79---35"], "qid": "Q126017", "time": 4904, "manualSelectionTime": -1, "sourcesWithNums": {"WordWindow": 1}, "type": "Formula"}}, "local": {}}